/*--------------------------------*- C++ -*----------------------------------*\
| =========                 |                                                 |
| \\      /  F ield         | OpenFOAM: The Open Source CFD Toolbox           |
|  \\    /   O peration     | Version:  v1906                                 |
|   \\  /    A nd           | Web:      www.OpenFOAM.com                      |
|    \\/     M anipulation  |                                                 |
\*---------------------------------------------------------------------------*/
FoamFile
{
    version     2.0;
    format      ascii;
    class       volVectorField;
    object      D;
}
// * * * * * * * * * * * * * * * * * * * * * * * * * * * * * * * * * * * * * //

dimensions      [0 1 0 0 0 0 0];

internalField   uniform (0 0 0);

boundaryField
{
    blockFront
    {
        type            tractionDisplacementPressureProfile;
        traction        uniform (0 0 0);
        pressure        nonuniform List<scalar>
	50
	(
	17.1721
	17.1721
	17.1721
	17.1722
	17.1724
	17.1727
	17.1729
	17.1733
	17.1736
	17.174
	17.1744
	17.1748
	17.1753
	17.1757
	17.1761
	17.1765
	17.1768
	17.1772
	17.1775
	17.1777
	17.1779
	17.1781
	17.1782
	17.1781
	17.178
	17.1778
	17.1775
	17.177
	17.1764
	17.1755
	17.1744
	17.1731
	17.1715
	17.1695
	17.1671
	17.1642
	17.1607
	17.1565
	17.1515
	17.1453
	17.1378
	17.1286
	17.117
	17.1022
	17.0828
	17.056
	17.0171
	16.9633
	16.8963
	16.6925
	);
        value           uniform (0 0 0);
    }
    blockTop
    {
        type            tractionDisplacementPressureProfile;
        traction        uniform (0 0 0);
	//pressure	uniform 15960;
        pressure        nonuniform List<scalar>
	20
	(
	15.3297
	15.3191
	15.3896
	15.4048
	15.4028
	15.3958
	15.3832
	15.3651
	15.3427
	15.317
	15.2888
	15.2585
	15.2265
	15.193
	15.1579
	15.1211
	15.0817
	15.0388
	14.9896
	14.9079
	);
        value           uniform (0 0 0);
    }
    blockBack
    {
        type            tractionDisplacementPressureProfile;
        traction        uniform (0 0 0);
        pressure        nonuniform List<scalar>
	50
	(
	15.1231
	15.1232
	15.1234
	15.1236
	15.124
	15.1244
	15.1248
	15.1252
	15.1255
	15.1259
	15.1262
	15.1264
	15.1265
	15.1266
	15.1266
	15.1264
	15.1262
	15.1258
	15.1254
	15.1248
	15.124
	15.1232
	15.1222
	15.121
	15.1197
	15.1182
	15.1166
	15.1148
	15.1128
	15.1106
	15.1081
	15.1055
	15.1025
	15.0993
	15.0957
	15.0916
	15.0871
	15.082
	15.0761
	15.0692
	15.0611
	15.0514
	15.0394
	15.0242
	15.0048
	14.9792
	14.9451
	14.8948
	14.8054
	14.6968
	);
        value           uniform (0 0 0);
    }
    blockBottom
    {
        type            fixedValue;
        value           uniform (0 0 0);
    }
    leftAndRight
    {
        type            empty;
    }

}

// ************************************************************************* //
